LAMMPS data file for MgH2 (demo)

3 atoms
3 atom types

0.0 10.0 xlo xhi
0.0 10.0 ylo yhi
0.0 10.0 zlo zhi

Masses

1 1.008
2 15.999    # O (dummy, unused)
3 24.305

Atoms # charge

1 3 0.0 5.0 5.0 5.0   # Mg
2 1 0.0 5.0 5.0 6.7   # H
3 1 0.0 5.0 5.0 3.3   # H