ITEM: TIMESTEP
0
ITEM: NUMBER OF ATOMS
3
ITEM: BOX BOUNDS pp pp pp
0.0000000000000000e+00 1.0000000000000000e+01
0.0000000000000000e+00 1.0000000000000000e+01
0.0000000000000000e+00 1.0000000000000000e+01
ITEM: ATOMS id type x y z q
1 3 5 5 5 0.27869
2 1 5 5 6.7 -0.139345
3 1 5 5 3.3 -0.139345
ITEM: TIMESTEP
500
ITEM: NUMBER OF ATOMS
3
ITEM: BOX BOUNDS pp pp pp
0.0000000000000000e+00 1.0000000000000000e+01
0.0000000000000000e+00 1.0000000000000000e+01
0.0000000000000000e+00 1.0000000000000000e+01
ITEM: ATOMS id type x y z q
1 3 5.01381 4.9976 5.00266 0.276021
2 1 4.83057 5.02941 6.67672 -0.139709
3 1 4.83652 5.02837 3.25907 -0.136312
ITEM: TIMESTEP
1000
ITEM: NUMBER OF ATOMS
3
ITEM: BOX BOUNDS pp pp pp
0.0000000000000000e+00 1.0000000000000000e+01
0.0000000000000000e+00 1.0000000000000000e+01
0.0000000000000000e+00 1.0000000000000000e+01
ITEM: ATOMS id type x y z q
1 3 5.00665 4.99885 4.99456 0.271833
2 1 4.89823 5.01766 6.81989 -0.132461
3 1 4.94135 5.01018 3.31117 -0.139372
ITEM: TIMESTEP
1500
ITEM: NUMBER OF ATOMS
3
ITEM: BOX BOUNDS pp pp pp
0.0000000000000000e+00 1.0000000000000000e+01
0.0000000000000000e+00 1.0000000000000000e+01
0.0000000000000000e+00 1.0000000000000000e+01
ITEM: ATOMS id type x y z q
1 3 4.98339 5.00288 5.00643 0.27186
2 1 5.14205 4.97534 6.66227 -0.140304
3 1 5.25839 4.95516 3.18277 -0.131557
ITEM: TIMESTEP
2000
ITEM: NUMBER OF ATOMS
3
ITEM: BOX BOUNDS pp pp pp
0.0000000000000000e+00 1.0000000000000000e+01
0.0000000000000000e+00 1.0000000000000000e+01
0.0000000000000000e+00 1.0000000000000000e+01
ITEM: ATOMS id type x y z q
1 3 4.98085 5.00332 4.99473 0.277285
2 1 5.11848 4.97941 6.74637 -0.136117
3 1 5.34317 4.94047 3.3807 -0.141168
ITEM: TIMESTEP
2500
ITEM: NUMBER OF ATOMS
3
ITEM: BOX BOUNDS pp pp pp
0.0000000000000000e+00 1.0000000000000000e+01
0.0000000000000000e+00 1.0000000000000000e+01
0.0000000000000000e+00 1.0000000000000000e+01
ITEM: ATOMS id type x y z q
1 3 5.00419 4.99927 4.99997 0.279789
2 1 4.67556 5.05613 6.66988 -0.139397
3 1 5.22353 4.96141 3.33094 -0.140392
ITEM: TIMESTEP
3000
ITEM: NUMBER OF ATOMS
3
ITEM: BOX BOUNDS pp pp pp
0.0000000000000000e+00 1.0000000000000000e+01
0.0000000000000000e+00 1.0000000000000000e+01
0.0000000000000000e+00 1.0000000000000000e+01
ITEM: ATOMS id type x y z q
1 3 5.01825 4.99683 5.01288 0.276855
2 1 4.15378 5.14593 6.41684 -0.14152
3 1 5.40622 4.93052 3.27249 -0.135335
ITEM: TIMESTEP
3500
ITEM: NUMBER OF ATOMS
3
ITEM: BOX BOUNDS pp pp pp
0.0000000000000000e+00 1.0000000000000000e+01
0.0000000000000000e+00 1.0000000000000000e+01
0.0000000000000000e+00 1.0000000000000000e+01
ITEM: ATOMS id type x y z q
1 3 5.01204 4.99794 5.0018 0.273822
2 1 3.65479 5.23381 6.25134 -0.132435
3 1 6.05483 4.81592 3.70514 -0.141387
ITEM: TIMESTEP
4000
ITEM: NUMBER OF ATOMS
3
ITEM: BOX BOUNDS pp pp pp
0.0000000000000000e+00 1.0000000000000000e+01
0.0000000000000000e+00 1.0000000000000000e+01
0.0000000000000000e+00 1.0000000000000000e+01
ITEM: ATOMS id type x y z q
1 3 4.98898 5.00206 4.99022 0.274194
2 1 3.60152 5.28444 5.89277 -0.140616
3 1 6.66423 4.66578 4.34314 -0.133578
ITEM: TIMESTEP
4500
ITEM: NUMBER OF ATOMS
3
ITEM: BOX BOUNDS pp pp pp
0.0000000000000000e+00 1.0000000000000000e+01
0.0000000000000000e+00 1.0000000000000000e+01
0.0000000000000000e+00 1.0000000000000000e+01
ITEM: ATOMS id type x y z q
1 3 4.99697 5.00002 4.98485 0.278722
2 1 3.49206 5.46953 5.70664 -0.13805
3 1 6.58098 4.52989 4.65859 -0.140672
ITEM: TIMESTEP
5000
ITEM: NUMBER OF ATOMS
3
ITEM: BOX BOUNDS pp pp pp
0.0000000000000000e+00 1.0000000000000000e+01
0.0000000000000000e+00 1.0000000000000000e+01
0.0000000000000000e+00 1.0000000000000000e+01
ITEM: ATOMS id type x y z q
1 3 5.00239 4.99918 5.00358 0.281393
2 1 3.55395 5.77829 5.48751 -0.139884
3 1 6.38841 4.24143 4.42608 -0.141508
ITEM: TIMESTEP
5500
ITEM: NUMBER OF ATOMS
3
ITEM: BOX BOUNDS pp pp pp
0.0000000000000000e+00 1.0000000000000000e+01
0.0000000000000000e+00 1.0000000000000000e+01
0.0000000000000000e+00 1.0000000000000000e+01
ITEM: ATOMS id type x y z q
1 3 5.00323 5.00073 5.01354 0.279438
2 1 3.83871 6.1071 5.48229 -0.141999
3 1 6.08331 3.8753 4.1913 -0.137439
ITEM: TIMESTEP
6000
ITEM: NUMBER OF ATOMS
3
ITEM: BOX BOUNDS pp pp pp
0.0000000000000000e+00 1.0000000000000000e+01
0.0000000000000000e+00 1.0000000000000000e+01
0.0000000000000000e+00 1.0000000000000000e+01
ITEM: ATOMS id type x y z q
1 3 5.00272 4.9963 4.99869 0.276032
2 1 4.19348 6.3915 5.81839 -0.135049
3 1 5.74087 3.69768 4.21329 -0.140983
ITEM: TIMESTEP
6500
ITEM: NUMBER OF ATOMS
3
ITEM: BOX BOUNDS pp pp pp
0.0000000000000000e+00 1.0000000000000000e+01
0.0000000000000000e+00 1.0000000000000000e+01
0.0000000000000000e+00 1.0000000000000000e+01
ITEM: ATOMS id type x y z q
1 3 4.99045 5.00931 4.99174 0.276165
2 1 4.69278 6.20958 6.13527 -0.140934
3 1 5.53754 3.56587 4.06392 -0.135232
ITEM: TIMESTEP
7000
ITEM: NUMBER OF ATOMS
3
ITEM: BOX BOUNDS pp pp pp
0.0000000000000000e+00 1.0000000000000000e+01
0.0000000000000000e+00 1.0000000000000000e+01
0.0000000000000000e+00 1.0000000000000000e+01
ITEM: ATOMS id type x y z q
1 3 4.99334 5.00572 4.99354 0.279564
2 1 5.13949 5.93078 6.45978 -0.138426
3 1 5.02112 3.93137 3.69598 -0.141138
ITEM: TIMESTEP
7500
ITEM: NUMBER OF ATOMS
3
ITEM: BOX BOUNDS pp pp pp
0.0000000000000000e+00 1.0000000000000000e+01
0.0000000000000000e+00 1.0000000000000000e+01
0.0000000000000000e+00 1.0000000000000000e+01
ITEM: ATOMS id type x y z q
1 3 5.00634 4.98631 4.99828 0.28196
2 1 5.70428 5.59185 6.44254 -0.139651
3 1 4.14294 4.7383 3.59889 -0.14231
ITEM: TIMESTEP
8000
ITEM: NUMBER OF ATOMS
3
ITEM: BOX BOUNDS pp pp pp
0.0000000000000000e+00 1.0000000000000000e+01
0.0000000000000000e+00 1.0000000000000000e+01
0.0000000000000000e+00 1.0000000000000000e+01
ITEM: ATOMS id type x y z q
1 3 5.00748 4.97754 4.99322 0.277583
2 1 6.37929 4.99779 5.87358 -0.143244
3 1 3.44038 5.54384 4.28985 -0.134339
ITEM: TIMESTEP
8500
ITEM: NUMBER OF ATOMS
3
ITEM: BOX BOUNDS pp pp pp
0.0000000000000000e+00 1.0000000000000000e+01
0.0000000000000000e+00 1.0000000000000000e+01
0.0000000000000000e+00 1.0000000000000000e+01
ITEM: ATOMS id type x y z q
1 3 4.99073 5.00416 4.99878 0.271943
2 1 6.55013 3.9134 4.81297 -0.129965
3 1 3.67328 5.98636 5.21651 -0.141978
ITEM: TIMESTEP
9000
ITEM: NUMBER OF ATOMS
3
ITEM: BOX BOUNDS pp pp pp
0.0000000000000000e+00 1.0000000000000000e+01
0.0000000000000000e+00 1.0000000000000000e+01
0.0000000000000000e+00 1.0000000000000000e+01
ITEM: ATOMS id type x y z q
1 3 5.02342 4.99849 5.00143 0.271985
2 1 5.09629 3.75595 3.83322 -0.139237
3 1 4.33904 6.28035 6.13232 -0.132748
ITEM: TIMESTEP
9500
ITEM: NUMBER OF ATOMS
3
ITEM: BOX BOUNDS pp pp pp
0.0000000000000000e+00 1.0000000000000000e+01
0.0000000000000000e+00 1.0000000000000000e+01
0.0000000000000000e+00 1.0000000000000000e+01
ITEM: ATOMS id type x y z q
1 3 5.01882 4.98936 4.99038 0.278378
2 1 3.90949 4.51533 3.79991 -0.140272
3 1 5.63682 5.74131 6.43195 -0.138106
ITEM: TIMESTEP
10000
ITEM: NUMBER OF ATOMS
3
ITEM: BOX BOUNDS pp pp pp
0.0000000000000000e+00 1.0000000000000000e+01
0.0000000000000000e+00 1.0000000000000000e+01
0.0000000000000000e+00 1.0000000000000000e+01
ITEM: ATOMS id type x y z q
1 3 5.00398 4.9994 5.0048 0.28187
2 1 3.42881 5.26196 4.25593 -0.13717
3 1 6.47512 4.75244 5.62826 -0.1447
ITEM: TIMESTEP
10500
ITEM: NUMBER OF ATOMS
3
ITEM: BOX BOUNDS pp pp pp
0.0000000000000000e+00 1.0000000000000000e+01
0.0000000000000000e+00 1.0000000000000000e+01
0.0000000000000000e+00 1.0000000000000000e+01
ITEM: ATOMS id type x y z q
1 3 4.9974 5.01055 5.01826 0.279565
2 1 3.65474 5.84678 4.67983 -0.144425
3 1 6.40797 3.89877 4.87982 -0.13514
ITEM: TIMESTEP
11000
ITEM: NUMBER OF ATOMS
3
ITEM: BOX BOUNDS pp pp pp
0.0000000000000000e+00 1.0000000000000000e+01
0.0000000000000000e+00 1.0000000000000000e+01
0.0000000000000000e+00 1.0000000000000000e+01
ITEM: ATOMS id type x y z q
1 3 5.00751 4.99685 5.00685 0.274465
2 1 3.98231 6.49436 5.21482 -0.133804
3 1 5.83657 3.58157 4.62006 -0.140662
ITEM: TIMESTEP
11500
ITEM: NUMBER OF ATOMS
3
ITEM: BOX BOUNDS pp pp pp
0.0000000000000000e+00 1.0000000000000000e+01
0.0000000000000000e+00 1.0000000000000000e+01
0.0000000000000000e+00 1.0000000000000000e+01
ITEM: ATOMS id type x y z q
1 3 4.99325 5.00409 4.99003 0.273958
2 1 4.55072 6.46837 5.80281 -0.138026
3 1 5.61216 3.43311 4.43762 -0.135933
ITEM: TIMESTEP
12000
ITEM: NUMBER OF ATOMS
3
ITEM: BOX BOUNDS pp pp pp
0.0000000000000000e+00 1.0000000000000000e+01
0.0000000000000000e+00 1.0000000000000000e+01
0.0000000000000000e+00 1.0000000000000000e+01
ITEM: ATOMS id type x y z q
1 3 4.98897 5.00876 4.99202 0.279102
2 1 4.89026 6.10905 6.26619 -0.141074
3 1 5.37577 3.67981 3.92629 -0.138028
ITEM: TIMESTEP
12500
ITEM: NUMBER OF ATOMS
3
ITEM: BOX BOUNDS pp pp pp
0.0000000000000000e+00 1.0000000000000000e+01
0.0000000000000000e+00 1.0000000000000000e+01
0.0000000000000000e+00 1.0000000000000000e+01
ITEM: ATOMS id type x y z q
1 3 5.00242 4.99295 4.99534 0.281366
2 1 5.11824 5.61857 6.65025 -0.136389
3 1 4.82352 4.55148 3.46221 -0.144977
ITEM: TIMESTEP
13000
ITEM: NUMBER OF ATOMS
3
ITEM: BOX BOUNDS pp pp pp
0.0000000000000000e+00 1.0000000000000000e+01
0.0000000000000000e+00 1.0000000000000000e+01
0.0000000000000000e+00 1.0000000000000000e+01
ITEM: ATOMS id type x y z q
1 3 5.01776 4.97672 4.99259 0.279705
2 1 5.60087 4.7383 6.43567 -0.1466
3 1 3.971 5.82292 3.74312 -0.133105
ITEM: TIMESTEP
13500
ITEM: NUMBER OF ATOMS
3
ITEM: BOX BOUNDS pp pp pp
0.0000000000000000e+00 1.0000000000000000e+01
0.0000000000000000e+00 1.0000000000000000e+01
0.0000000000000000e+00 1.0000000000000000e+01
ITEM: ATOMS id type x y z q
1 3 4.99302 5.00487 4.97772 0.270924
2 1 6.19971 3.58408 5.19509 -0.131038
3 1 3.96858 6.29851 5.34205 -0.139886
ITEM: TIMESTEP
14000
ITEM: NUMBER OF ATOMS
3
ITEM: BOX BOUNDS pp pp pp
0.0000000000000000e+00 1.0000000000000000e+01
0.0000000000000000e+00 1.0000000000000000e+01
0.0000000000000000e+00 1.0000000000000000e+01
ITEM: ATOMS id type x y z q
1 3 5.00333 4.99964 5.00483 0.268061
2 1 5.34956 4.24791 3.34938 -0.132007
3 1 4.57023 5.76076 6.53413 -0.136054
ITEM: TIMESTEP
14500
ITEM: NUMBER OF ATOMS
3
ITEM: BOX BOUNDS pp pp pp
0.0000000000000000e+00 1.0000000000000000e+01
0.0000000000000000e+00 1.0000000000000000e+01
0.0000000000000000e+00 1.0000000000000000e+01
ITEM: ATOMS id type x y z q
1 3 5.01156 4.98313 4.98092 0.275719
2 1 4.28978 5.6554 3.69701 -0.143302
3 1 5.43152 4.75131 6.76303 -0.132416
ITEM: TIMESTEP
15000
ITEM: NUMBER OF ATOMS
3
ITEM: BOX BOUNDS pp pp pp
0.0000000000000000e+00 1.0000000000000000e+01
0.0000000000000000e+00 1.0000000000000000e+01
0.0000000000000000e+00 1.0000000000000000e+01
ITEM: ATOMS id type x y z q
1 3 5.00553 4.98804 4.98385 0.283327
2 1 3.87635 6.36276 4.78043 -0.136217
3 1 5.9902 3.92553 5.609 -0.147111
ITEM: TIMESTEP
15500
ITEM: NUMBER OF ATOMS
3
ITEM: BOX BOUNDS pp pp pp
0.0000000000000000e+00 1.0000000000000000e+01
0.0000000000000000e+00 1.0000000000000000e+01
0.0000000000000000e+00 1.0000000000000000e+01
ITEM: ATOMS id type x y z q
1 3 4.99908 5.00142 5.00918 0.281305
2 1 4.04383 6.20838 5.56858 -0.144104
3 1 5.97832 3.7574 4.20999 -0.137201
ITEM: TIMESTEP
16000
ITEM: NUMBER OF ATOMS
3
ITEM: BOX BOUNDS pp pp pp
0.0000000000000000e+00 1.0000000000000000e+01
0.0000000000000000e+00 1.0000000000000000e+01
0.0000000000000000e+00 1.0000000000000000e+01
ITEM: ATOMS id type x y z q
1 3 5.01232 4.99011 5.01147 0.275568
2 1 4.19476 5.93781 6.2302 -0.137519
3 1 5.50823 4.3007 3.49319 -0.138049
ITEM: TIMESTEP
16500
ITEM: NUMBER OF ATOMS
3
ITEM: BOX BOUNDS pp pp pp
0.0000000000000000e+00 1.0000000000000000e+01
0.0000000000000000e+00 1.0000000000000000e+01
0.0000000000000000e+00 1.0000000000000000e+01
ITEM: ATOMS id type x y z q
1 3 5.0046 4.99686 4.99813 0.272627
2 1 4.51349 5.53845 6.65429 -0.133938
3 1 5.3756 4.5372 3.39075 -0.138689
ITEM: TIMESTEP
17000
ITEM: NUMBER OF ATOMS
3
ITEM: BOX BOUNDS pp pp pp
0.0000000000000000e+00 1.0000000000000000e+01
0.0000000000000000e+00 1.0000000000000000e+01
0.0000000000000000e+00 1.0000000000000000e+01
ITEM: ATOMS id type x y z q
1 3 4.98858 5.01021 5.00038 0.27634
2 1 4.74007 5.29538 6.61183 -0.141771
3 1 5.53523 4.45839 3.37907 -0.13457
ITEM: TIMESTEP
17500
ITEM: NUMBER OF ATOMS
3
ITEM: BOX BOUNDS pp pp pp
0.0000000000000000e+00 1.0000000000000000e+01
0.0000000000000000e+00 1.0000000000000000e+01
0.0000000000000000e+00 1.0000000000000000e+01
ITEM: ATOMS id type x y z q
1 3 4.99381 5.00389 4.98957 0.281507
2 1 4.49492 5.51884 6.60599 -0.137029
3 1 5.65428 4.38732 3.64548 -0.144478
ITEM: TIMESTEP
18000
ITEM: NUMBER OF ATOMS
3
ITEM: BOX BOUNDS pp pp pp
0.0000000000000000e+00 1.0000000000000000e+01
0.0000000000000000e+00 1.0000000000000000e+01
0.0000000000000000e+00 1.0000000000000000e+01
ITEM: ATOMS id type x y z q
1 3 5.0024 4.99788 5.01272 0.281447
2 1 3.93239 5.98709 5.78269 -0.143595
3 1 6.00976 4.06393 3.91062 -0.137852
ITEM: TIMESTEP
18500
ITEM: NUMBER OF ATOMS
3
ITEM: BOX BOUNDS pp pp pp
0.0000000000000000e+00 1.0000000000000000e+01
0.0000000000000000e+00 1.0000000000000000e+01
0.0000000000000000e+00 1.0000000000000000e+01
ITEM: ATOMS id type x y z q
1 3 4.99533 5.00789 5.02841 0.272991
2 1 3.82484 6.01085 4.21309 -0.137116
3 1 6.28769 3.79889 5.10199 -0.135875
ITEM: TIMESTEP
19000
ITEM: NUMBER OF ATOMS
3
ITEM: BOX BOUNDS pp pp pp
0.0000000000000000e+00 1.0000000000000000e+01
0.0000000000000000e+00 1.0000000000000000e+01
0.0000000000000000e+00 1.0000000000000000e+01
ITEM: ATOMS id type x y z q
1 3 4.99205 5.011 5.01173 0.266285
2 1 4.8327 5.07494 3.09334 -0.127776
3 1 5.35908 4.65991 6.62384 -0.13851
ITEM: TIMESTEP
19500
ITEM: NUMBER OF ATOMS
3
ITEM: BOX BOUNDS pp pp pp
0.0000000000000000e+00 1.0000000000000000e+01
0.0000000000000000e+00 1.0000000000000000e+01
0.0000000000000000e+00 1.0000000000000000e+01
ITEM: ATOMS id type x y z q
1 3 5.01211 4.98803 5.00604 0.273857
2 1 5.96321 4.0538 4.08723 -0.144438
3 1 3.7447 6.23479 5.76715 -0.129419
ITEM: TIMESTEP
20000
ITEM: NUMBER OF ATOMS
3
ITEM: BOX BOUNDS pp pp pp
0.0000000000000000e+00 1.0000000000000000e+01
0.0000000000000000e+00 1.0000000000000000e+01
0.0000000000000000e+00 1.0000000000000000e+01
ITEM: ATOMS id type x y z q
1 3 4.9796 5.01649 5.01728 0.279784
2 1 5.97436 4.06034 6.07164 -0.137829
3 1 4.51758 5.54195 3.51179 -0.141954
ITEM: TIMESTEP
20500
ITEM: NUMBER OF ATOMS
3
ITEM: BOX BOUNDS pp pp pp
0.0000000000000000e+00 1.0000000000000000e+01
0.0000000000000000e+00 1.0000000000000000e+01
0.0000000000000000e+00 1.0000000000000000e+01
ITEM: ATOMS id type x y z q
1 3 4.98484 5.01209 4.97878 0.282799
2 1 4.45795 5.49593 6.57467 -0.137791
3 1 5.90751 4.21245 3.93707 -0.145008
ITEM: TIMESTEP
21000
ITEM: NUMBER OF ATOMS
3
ITEM: BOX BOUNDS pp pp pp
0.0000000000000000e+00 1.0000000000000000e+01
0.0000000000000000e+00 1.0000000000000000e+01
0.0000000000000000e+00 1.0000000000000000e+01
ITEM: ATOMS id type x y z q
1 3 4.9938 5.00539 4.99707 0.27817
2 1 3.84242 6.09818 4.66832 -0.144665
3 1 6.30716 3.77184 5.4024 -0.133505
ITEM: TIMESTEP
21500
ITEM: NUMBER OF ATOMS
3
ITEM: BOX BOUNDS pp pp pp
0.0000000000000000e+00 1.0000000000000000e+01
0.0000000000000000e+00 1.0000000000000000e+01
0.0000000000000000e+00 1.0000000000000000e+01
ITEM: ATOMS id type x y z q
1 3 4.98996 5.01094 5.01771 0.272573
2 1 4.49085 5.51961 3.29723 -0.13183
3 1 5.75116 4.21659 6.27586 -0.140744
ITEM: TIMESTEP
22000
ITEM: NUMBER OF ATOMS
3
ITEM: BOX BOUNDS pp pp pp
0.0000000000000000e+00 1.0000000000000000e+01
0.0000000000000000e+00 1.0000000000000000e+01
0.0000000000000000e+00 1.0000000000000000e+01
ITEM: ATOMS id type x y z q
1 3 4.98857 5.01286 4.99921 0.270905
2 1 5.07305 5.00585 3.27236 -0.136974
3 1 5.20262 4.68403 6.7468 -0.133931
ITEM: TIMESTEP
22500
ITEM: NUMBER OF ATOMS
3
ITEM: BOX BOUNDS pp pp pp
0.0000000000000000e+00 1.0000000000000000e+01
0.0000000000000000e+00 1.0000000000000000e+01
0.0000000000000000e+00 1.0000000000000000e+01
ITEM: ATOMS id type x y z q
1 3 5.00543 4.99421 4.99929 0.277137
2 1 5.35229 4.86452 3.35773 -0.140351
3 1 4.51677 5.2752 6.65938 -0.136786
ITEM: TIMESTEP
23000
ITEM: NUMBER OF ATOMS
3
ITEM: BOX BOUNDS pp pp pp
0.0000000000000000e+00 1.0000000000000000e+01
0.0000000000000000e+00 1.0000000000000000e+01
0.0000000000000000e+00 1.0000000000000000e+01
ITEM: ATOMS id type x y z q
1 3 5.00494 4.98833 5.02262 0.283959
2 1 5.99417 4.4885 3.64767 -0.137319
3 1 3.88665 5.79298 5.80696 -0.14664
ITEM: TIMESTEP
23500
ITEM: NUMBER OF ATOMS
3
ITEM: BOX BOUNDS pp pp pp
0.0000000000000000e+00 1.0000000000000000e+01
0.0000000000000000e+00 1.0000000000000000e+01
0.0000000000000000e+00 1.0000000000000000e+01
ITEM: ATOMS id type x y z q
1 3 4.99872 4.99523 5.02041 0.279021
2 1 6.22211 4.10716 5.50463 -0.146453
3 1 3.80877 6.0078 4.0033 -0.132568
ITEM: TIMESTEP
24000
ITEM: NUMBER OF ATOMS
3
ITEM: BOX BOUNDS pp pp pp
0.0000000000000000e+00 1.0000000000000000e+01
0.0000000000000000e+00 1.0000000000000000e+01
0.0000000000000000e+00 1.0000000000000000e+01
ITEM: ATOMS id type x y z q
1 3 5.01041 4.99613 4.999 0.267563
2 1 4.05156 5.40361 6.58363 -0.129909
3 1 5.69734 4.68972 3.44045 -0.137654
ITEM: TIMESTEP
24500
ITEM: NUMBER OF ATOMS
3
ITEM: BOX BOUNDS pp pp pp
0.0000000000000000e+00 1.0000000000000000e+01
0.0000000000000000e+00 1.0000000000000000e+01
0.0000000000000000e+00 1.0000000000000000e+01
ITEM: ATOMS id type x y z q
1 3 4.9934 5.00659 5.03026 0.267318
2 1 4.01059 5.92563 3.63394 -0.128162
3 1 6.14854 3.91549 5.63643 -0.139156
ITEM: TIMESTEP
25000
ITEM: NUMBER OF ATOMS
3
ITEM: BOX BOUNDS pp pp pp
0.0000000000000000e+00 1.0000000000000000e+01
0.0000000000000000e+00 1.0000000000000000e+01
0.0000000000000000e+00 1.0000000000000000e+01
ITEM: ATOMS id type x y z q
1 3 4.98586 5.02404 4.97487 0.272947
2 1 6.0716 4.56733 3.87862 -0.143446
3 1 4.26937 4.85293 6.72743 -0.129501
ITEM: TIMESTEP
25500
ITEM: NUMBER OF ATOMS
3
ITEM: BOX BOUNDS pp pp pp
0.0000000000000000e+00 1.0000000000000000e+01
0.0000000000000000e+00 1.0000000000000000e+01
0.0000000000000000e+00 1.0000000000000000e+01
ITEM: ATOMS id type x y z q
1 3 5.00189 5.00422 4.98152 0.27999
2 1 6.38503 4.09648 5.59468 -0.136913
3 1 3.56945 5.80173 4.85087 -0.143077
ITEM: TIMESTEP
26000
ITEM: NUMBER OF ATOMS
3
ITEM: BOX BOUNDS pp pp pp
0.0000000000000000e+00 1.0000000000000000e+01
0.0000000000000000e+00 1.0000000000000000e+01
0.0000000000000000e+00 1.0000000000000000e+01
ITEM: ATOMS id type x y z q
1 3 4.98736 5.00145 5.00211 0.280655
2 1 5.4593 4.40765 6.52791 -0.139723
3 1 4.84557 5.55729 3.42112 -0.140933
ITEM: TIMESTEP
26500
ITEM: NUMBER OF ATOMS
3
ITEM: BOX BOUNDS pp pp pp
0.0000000000000000e+00 1.0000000000000000e+01
0.0000000000000000e+00 1.0000000000000000e+01
0.0000000000000000e+00 1.0000000000000000e+01
ITEM: ATOMS id type x y z q
1 3 4.97676 5.01244 4.99394 0.276501
2 1 4.43111 4.84314 6.53637 -0.142396
3 1 6.12927 4.85685 3.60974 -0.134105
ITEM: TIMESTEP
27000
ITEM: NUMBER OF ATOMS
3
ITEM: BOX BOUNDS pp pp pp
0.0000000000000000e+00 1.0000000000000000e+01
0.0000000000000000e+00 1.0000000000000000e+01
0.0000000000000000e+00 1.0000000000000000e+01
ITEM: ATOMS id type x y z q
1 3 5.00703 5.00412 4.98722 0.271062
2 1 3.32782 5.52015 5.70468 -0.130022
3 1 6.50271 4.38052 4.60352 -0.141041
ITEM: TIMESTEP
27500
ITEM: NUMBER OF ATOMS
3
ITEM: BOX BOUNDS pp pp pp
0.0000000000000000e+00 1.0000000000000000e+01
0.0000000000000000e+00 1.0000000000000000e+01
0.0000000000000000e+00 1.0000000000000000e+01
ITEM: ATOMS id type x y z q
1 3 4.98808 5.00567 5.0136 0.272251
2 1 3.99916 6.0367 4.07512 -0.139436
3 1 6.28834 3.82668 5.59702 -0.132815
ITEM: TIMESTEP
28000
ITEM: NUMBER OF ATOMS
3
ITEM: BOX BOUNDS pp pp pp
0.0000000000000000e+00 1.0000000000000000e+01
0.0000000000000000e+00 1.0000000000000000e+01
0.0000000000000000e+00 1.0000000000000000e+01
ITEM: ATOMS id type x y z q
1 3 4.97494 5.02827 4.98927 0.276508
2 1 6.22318 5.21703 3.89542 -0.140528
3 1 4.38111 4.1014 6.36321 -0.135981
ITEM: TIMESTEP
28500
ITEM: NUMBER OF ATOMS
3
ITEM: BOX BOUNDS pp pp pp
0.0000000000000000e+00 1.0000000000000000e+01
0.0000000000000000e+00 1.0000000000000000e+01
0.0000000000000000e+00 1.0000000000000000e+01
ITEM: ATOMS id type x y z q
1 3 5.02482 5.01217 4.97393 0.28368
2 1 5.48567 4.07572 6.47509 -0.133617
3 1 3.91588 5.63095 4.15359 -0.150063
ITEM: TIMESTEP
29000
ITEM: NUMBER OF ATOMS
3
ITEM: BOX BOUNDS pp pp pp
0.0000000000000000e+00 1.0000000000000000e+01
0.0000000000000000e+00 1.0000000000000000e+01
0.0000000000000000e+00 1.0000000000000000e+01
ITEM: ATOMS id type x y z q
1 3 4.98816 4.99028 5.01975 0.280492
2 1 3.63156 5.7752 5.02567 -0.146758
3 1 6.6539 4.45911 4.49818 -0.133734
ITEM: TIMESTEP
29500
ITEM: NUMBER OF ATOMS
3
ITEM: BOX BOUNDS pp pp pp
0.0000000000000000e+00 1.0000000000000000e+01
0.0000000000000000e+00 1.0000000000000000e+01
0.0000000000000000e+00 1.0000000000000000e+01
ITEM: ATOMS id type x y z q
1 3 4.99644 4.99531 4.98734 0.274531
2 1 5.80625 6.02297 3.90536 -0.140292
3 1 4.2797 4.09005 6.39998 -0.134239
ITEM: TIMESTEP
30000
ITEM: NUMBER OF ATOMS
3
ITEM: BOX BOUNDS pp pp pp
0.0000000000000000e+00 1.0000000000000000e+01
0.0000000000000000e+00 1.0000000000000000e+01
0.0000000000000000e+00 1.0000000000000000e+01
ITEM: ATOMS id type x y z q
1 3 4.98435 4.97844 5.0064 0.268379
2 1 6.88691 4.9524 5.25297 -0.12819
3 1 3.49043 5.5674 4.5928 -0.140188
